
767 atoms
2 atom types
   0.0000000000   23.7026000000 xlo xhi
   0.0000000000   25.9858000000 ylo yhi
   0.0000000000   22.2467000000 zlo zhi
   0.0000000000    0.0000000000    0.0000000000 xy xz yz

Atoms # atomic

     1      1    0.0000000000    0.0000000000    4.9999458250
     2      1    0.0000000000    3.2482250000    8.2481864920
     3      1    0.0000000000    0.0000000000   11.4964271590
     4      1    0.0000000000    3.2482250000   14.7446678260
     5      1    0.0000000000    0.0000000000    7.5020321740
     6      1    0.0000000000    3.2482250000   10.7502728410
     7      1    0.0000000000    0.0000000000   13.9985135080
     8      1    0.0000000000    3.2482250000   17.2467541750
     9      1    1.4814125000    4.4991814120    6.2511002330
    10      1    1.4814125000    1.2509564120    9.4993409000
    11      1    1.4814125000    4.4991814120   12.7473591000
    12      1    1.4814125000    1.2509564120   15.9955997670
    13      1    1.4814125000    1.9970087300    6.2511002330
    14      1    1.4814125000    5.2452337300    9.4993409000
    15      1    1.4814125000    1.9970087300   12.7473591000
    16      1    1.4814125000    5.2452337300   15.9955997670
    17      1    2.9628250000    0.0000000000    4.9999458250
    18      1    2.9628250000    3.2482250000    8.2481864920
    19      1    2.9628250000    0.0000000000   11.4964271590
    20      1    2.9628250000    3.2482250000   14.7446678260
    21      1    2.9628250000    0.0000000000    7.5020321740
    22      1    2.9628250000    3.2482250000   10.7502728410
    23      1    2.9628250000    0.0000000000   13.9985135080
    24      1    2.9628250000    3.2482250000   17.2467541750
    25      1    4.4442375000    4.4991814120    6.2511002330
    26      1    4.4442375000    1.2509564120    9.4993409000
    27      1    4.4442375000    4.4991814120   12.7473591000
    28      1    4.4442375000    1.2509564120   15.9955997670
    29      1    4.4442375000    1.9970087300    6.2511002330
    30      1    4.4442375000    5.2452337300    9.4993409000
    31      1    4.4442375000    1.9970087300   12.7473591000
    32      1    4.4442375000    5.2452337300   15.9955997670
    33      1    5.9256500000    0.0000000000    4.9999458250
    34      1    5.9256500000    3.2482250000    8.2481864920
    35      1    5.9256500000    0.0000000000   11.4964271590
    36      1    5.9256500000    3.2482250000   14.7446678260
    37      1    5.9256500000    0.0000000000    7.5020321740
    38      1    5.9256500000    3.2482250000   10.7502728410
    39      1    5.9256500000    0.0000000000   13.9985135080
    40      1    5.9256500000    3.2482250000   17.2467541750
    41      1    7.4070625000    4.4991814120    6.2511002330
    42      1    7.4070625000    1.2509564120    9.4993409000
    43      1    7.4070625000    4.4991814120   12.7473591000
    44      1    7.4070625000    1.2509564120   15.9955997670
    45      1    7.4070625000    1.9970087300    6.2511002330
    46      1    7.4070625000    5.2452337300    9.4993409000
    47      1    7.4070625000    1.9970087300   12.7473591000
    48      1    7.4070625000    5.2452337300   15.9955997670
    49      1    8.8884750000    0.0000000000    4.9999458250
    50      1    8.8884750000    3.2482250000    8.2481864920
    51      1    8.8884750000    0.0000000000   11.4964271590
    52      1    8.8884750000    3.2482250000   14.7446678260
    53      1    8.8884750000    0.0000000000    7.5020321740
    54      1    8.8884750000    3.2482250000   10.7502728410
    55      1    8.8884750000    0.0000000000   13.9985135080
    56      1    8.8884750000    3.2482250000   17.2467541750
    57      1   10.3698875000    4.4991814120    6.2511002330
    58      1   10.3698875000    1.2509564120    9.4993409000
    59      1   10.3698875000    4.4991814120   12.7473591000
    60      1   10.3698875000    1.2509564120   15.9955997670
    61      1   10.3698875000    1.9970087300    6.2511002330
    62      1   10.3698875000    5.2452337300    9.4993409000
    63      1   10.3698875000    1.9970087300   12.7473591000
    64      1   10.3698875000    5.2452337300   15.9955997670
    65      1    0.0000000000    6.4964500000    4.9999458250
    66      1    0.0000000000    9.7446750000    8.2481864920
    67      1    0.0000000000    6.4964500000   11.4964271590
    68      1    0.0000000000    9.7446750000   14.7446678260
    69      1    0.0000000000    6.4964500000    7.5020321740
    70      1    0.0000000000    9.7446750000   10.7502728410
    71      1    0.0000000000    6.4964500000   13.9985135080
    72      1    0.0000000000    9.7446750000   17.2467541750
    73      1    1.4814125000   10.9956314120    6.2511002330
    74      1    1.4814125000    7.7474064120    9.4993409000
    75      1    1.4814125000   10.9956314120   12.7473591000
    76      1    1.4814125000    7.7474064120   15.9955997670
    77      1    1.4814125000    8.4934587300    6.2511002330
    78      1    1.4814125000   11.7416837300    9.4993409000
    79      1    1.4814125000    8.4934587300   12.7473591000
    80      1    1.4814125000   11.7416837300   15.9955997670
    81      1    2.9628250000    6.4964500000    4.9999458250
    82      1    2.9628250000    9.7446750000    8.2481864920
    83      1    2.9628250000    6.4964500000   11.4964271590
    84      1    2.9628250000    9.7446750000   14.7446678260
    85      1    2.9628250000    6.4964500000    7.5020321740
    86      1    2.9628250000    9.7446750000   10.7502728410
    87      1    2.9628250000    6.4964500000   13.9985135080
    88      1    2.9628250000    9.7446750000   17.2467541750
    89      1    4.4442375000   10.9956314120    6.2511002330
    90      1    4.4442375000    7.7474064120    9.4993409000
    91      1    4.4442375000   10.9956314120   12.7473591000
    92      1    4.4442375000    7.7474064120   15.9955997670
    93      1    4.4442375000    8.4934587300    6.2511002330
    94      1    4.4442375000   11.7416837300    9.4993409000
    95      1    4.4442375000    8.4934587300   12.7473591000
    96      1    4.4442375000   11.7416837300   15.9955997670
    97      1    5.9256500000    6.4964500000    4.9999458250
    98      1    5.9256500000    9.7446750000    8.2481864920
    99      1    5.9256500000    6.4964500000   11.4964271590
   100      1    5.9256500000    9.7446750000   14.7446678260
   101      1    5.9256500000    6.4964500000    7.5020321740
   102      1    5.9256500000    9.7446750000   10.7502728410
   103      1    5.9256500000    6.4964500000   13.9985135080
   104      1    5.9256500000    9.7446750000   17.2467541750
   105      1    7.4070625000   10.9956314120    6.2511002330
   106      1    7.4070625000    7.7474064120    9.4993409000
   107      1    7.4070625000   10.9956314120   12.7473591000
   108      1    7.4070625000    7.7474064120   15.9955997670
   109      1    7.4070625000    8.4934587300    6.2511002330
   110      1    7.4070625000   11.7416837300    9.4993409000
   111      1    7.4070625000    8.4934587300   12.7473591000
   112      1    7.4070625000   11.7416837300   15.9955997670
   113      1    8.8884750000    6.4964500000    4.9999458250
   114      1    8.8884750000    9.7446750000    8.2481864920
   115      1    8.8884750000    6.4964500000   11.4964271590
   116      1    8.8884750000    9.7446750000   14.7446678260
   117      1    8.8884750000    6.4964500000    7.5020321740
   118      1    8.8884750000    9.7446750000   10.7502728410
   119      1    8.8884750000    6.4964500000   13.9985135080
   120      1    8.8884750000    9.7446750000   17.2467541750
   121      1   10.3698875000   10.9956314120    6.2511002330
   122      1   10.3698875000    7.7474064120    9.4993409000
   123      1   10.3698875000   10.9956314120   12.7473591000
   124      1   10.3698875000    7.7474064120   15.9955997670
   125      1   10.3698875000    8.4934587300    6.2511002330
   126      1   10.3698875000   11.7416837300    9.4993409000
   127      1   10.3698875000    8.4934587300   12.7473591000
   128      1   10.3698875000   11.7416837300   15.9955997670
   129      1   11.8513000000    0.0000000000    4.9999458250
   130      1   11.8513000000    3.2482250000    8.2481864920
   131      1   11.8513000000    0.0000000000   11.4964271590
   132      1   11.8513000000    3.2482250000   14.7446678260
   133      1   11.8513000000    0.0000000000    7.5020321740
   134      1   11.8513000000    3.2482250000   10.7502728410
   135      1   11.8513000000    0.0000000000   13.9985135080
   136      1   11.8513000000    3.2482250000   17.2467541750
   137      1   13.3327125000    4.4991814120    6.2511002330
   138      1   13.3327125000    1.2509564120    9.4993409000
   139      1   13.3327125000    4.4991814120   12.7473591000
   140      1   13.3327125000    1.2509564120   15.9955997670
   141      1   13.3327125000    1.9970087300    6.2511002330
   142      1   13.3327125000    5.2452337300    9.4993409000
   143      1   13.3327125000    1.9970087300   12.7473591000
   144      1   13.3327125000    5.2452337300   15.9955997670
   145      1   14.8141250000    0.0000000000    4.9999458250
   146      1   14.8141250000    3.2482250000    8.2481864920
   147      1   14.8141250000    0.0000000000   11.4964271590
   148      1   14.8141250000    3.2482250000   14.7446678260
   149      1   14.8141250000    0.0000000000    7.5020321740
   150      1   14.8141250000    3.2482250000   10.7502728410
   151      1   14.8141250000    0.0000000000   13.9985135080
   152      1   14.8141250000    3.2482250000   17.2467541750
   153      1   16.2955375000    4.4991814120    6.2511002330
   154      1   16.2955375000    1.2509564120    9.4993409000
   155      1   16.2955375000    4.4991814120   12.7473591000
   156      1   16.2955375000    1.2509564120   15.9955997670
   157      1   16.2955375000    1.9970087300    6.2511002330
   158      1   16.2955375000    5.2452337300    9.4993409000
   159      1   16.2955375000    1.9970087300   12.7473591000
   160      1   16.2955375000    5.2452337300   15.9955997670
   161      1   17.7769500000    0.0000000000    4.9999458250
   162      1   17.7769500000    3.2482250000    8.2481864920
   163      1   17.7769500000    0.0000000000   11.4964271590
   164      1   17.7769500000    3.2482250000   14.7446678260
   165      1   17.7769500000    0.0000000000    7.5020321740
   166      1   17.7769500000    3.2482250000   10.7502728410
   167      1   17.7769500000    0.0000000000   13.9985135080
   168      1   17.7769500000    3.2482250000   17.2467541750
   169      1   19.2583625000    4.4991814120    6.2511002330
   170      1   19.2583625000    1.2509564120    9.4993409000
   171      1   19.2583625000    4.4991814120   12.7473591000
   172      1   19.2583625000    1.2509564120   15.9955997670
   173      1   19.2583625000    1.9970087300    6.2511002330
   174      1   19.2583625000    5.2452337300    9.4993409000
   175      1   19.2583625000    1.9970087300   12.7473591000
   176      1   19.2583625000    5.2452337300   15.9955997670
   177      1   20.7397750000    0.0000000000    4.9999458250
   178      1   20.7397750000    3.2482250000    8.2481864920
   179      1   20.7397750000    0.0000000000   11.4964271590
   180      1   20.7397750000    3.2482250000   14.7446678260
   181      1   20.7397750000    0.0000000000    7.5020321740
   182      1   20.7397750000    3.2482250000   10.7502728410
   183      1   20.7397750000    0.0000000000   13.9985135080
   184      1   20.7397750000    3.2482250000   17.2467541750
   185      1   22.2211875000    4.4991814120    6.2511002330
   186      1   22.2211875000    1.2509564120    9.4993409000
   187      1   22.2211875000    4.4991814120   12.7473591000
   188      1   22.2211875000    1.2509564120   15.9955997670
   189      1   22.2211875000    1.9970087300    6.2511002330
   190      1   22.2211875000    5.2452337300    9.4993409000
   191      1   22.2211875000    1.9970087300   12.7473591000
   192      1   22.2211875000    5.2452337300   15.9955997670
   193      1   11.8513000000    6.4964500000    4.9999458250
   194      1   11.8513000000    9.7446750000    8.2481864920
   195      1   11.8513000000    6.4964500000   11.4964271590
   196      1   11.8513000000    9.7446750000   14.7446678260
   197      1   11.8513000000    6.4964500000    7.5020321740
   198      1   11.8513000000    9.7446750000   10.7502728410
   199      1   11.8513000000    6.4964500000   13.9985135080
   200      1   11.8513000000    9.7446750000   17.2467541750
   201      1   13.3327125000   10.9956314120    6.2511002330
   202      1   13.3327125000    7.7474064120    9.4993409000
   203      1   13.3327125000   10.9956314120   12.7473591000
   204      1   13.3327125000    7.7474064120   15.9955997670
   205      1   13.3327125000    8.4934587300    6.2511002330
   206      1   13.3327125000   11.7416837300    9.4993409000
   207      1   13.3327125000    8.4934587300   12.7473591000
   208      1   13.3327125000   11.7416837300   15.9955997670
   209      1   14.8141250000    6.4964500000    4.9999458250
   210      1   14.8141250000    9.7446750000    8.2481864920
   211      1   14.8141250000    6.4964500000   11.4964271590
   212      1   14.8141250000    9.7446750000   14.7446678260
   213      1   14.8141250000    6.4964500000    7.5020321740
   214      1   14.8141250000    9.7446750000   10.7502728410
   215      1   14.8141250000    6.4964500000   13.9985135080
   216      1   14.8141250000    9.7446750000   17.2467541750
   217      1   16.2955375000   10.9956314120    6.2511002330
   218      1   16.2955375000    7.7474064120    9.4993409000
   219      1   16.2955375000   10.9956314120   12.7473591000
   220      1   16.2955375000    7.7474064120   15.9955997670
   221      1   16.2955375000    8.4934587300    6.2511002330
   222      1   16.2955375000   11.7416837300    9.4993409000
   223      1   16.2955375000    8.4934587300   12.7473591000
   224      1   16.2955375000   11.7416837300   15.9955997670
   225      1   17.7769500000    6.4964500000    4.9999458250
   226      1   17.7769500000    9.7446750000    8.2481864920
   227      1   17.7769500000    6.4964500000   11.4964271590
   228      1   17.7769500000    9.7446750000   14.7446678260
   229      1   17.7769500000    6.4964500000    7.5020321740
   230      1   17.7769500000    9.7446750000   10.7502728410
   231      1   17.7769500000    6.4964500000   13.9985135080
   232      1   17.7769500000    9.7446750000   17.2467541750
   233      1   19.2583625000   10.9956314120    6.2511002330
   234      1   19.2583625000    7.7474064120    9.4993409000
   235      1   19.2583625000   10.9956314120   12.7473591000
   236      1   19.2583625000    7.7474064120   15.9955997670
   237      1   19.2583625000    8.4934587300    6.2511002330
   238      1   19.2583625000   11.7416837300    9.4993409000
   239      1   19.2583625000    8.4934587300   12.7473591000
   240      1   19.2583625000   11.7416837300   15.9955997670
   241      1   20.7397750000    6.4964500000    4.9999458250
   242      1   20.7397750000    9.7446750000    8.2481864920
   243      1   20.7397750000    6.4964500000   11.4964271590
   244      1   20.7397750000    9.7446750000   14.7446678260
   245      1   20.7397750000    6.4964500000    7.5020321740
   246      1   20.7397750000    9.7446750000   10.7502728410
   247      1   20.7397750000    6.4964500000   13.9985135080
   248      1   20.7397750000    9.7446750000   17.2467541750
   249      1   22.2211875000   10.9956314120    6.2511002330
   250      1   22.2211875000    7.7474064120    9.4993409000
   251      1   22.2211875000   10.9956314120   12.7473591000
   252      1   22.2211875000    7.7474064120   15.9955997670
   253      1   22.2211875000    8.4934587300    6.2511002330
   254      1   22.2211875000   11.7416837300    9.4993409000
   255      1   22.2211875000    8.4934587300   12.7473591000
   256      1   22.2211875000   11.7416837300   15.9955997670
   257      1    0.0000000000   12.9929000000    4.9999458250
   258      1    0.0000000000   16.2411250000    8.2481864920
   259      1    0.0000000000   12.9929000000   11.4964271590
   260      1    0.0000000000   16.2411250000   14.7446678260
   261      1    0.0000000000   12.9929000000    7.5020321740
   262      1    0.0000000000   16.2411250000   10.7502728410
   263      1    0.0000000000   12.9929000000   13.9985135080
   264      1    0.0000000000   16.2411250000   17.2467541750
   265      1    1.4814125000   17.4920814120    6.2511002330
   266      1    1.4814125000   14.2438564120    9.4993409000
   267      1    1.4814125000   17.4920814120   12.7473591000
   268      1    1.4814125000   14.2438564120   15.9955997670
   269      1    1.4814125000   14.9899087300    6.2511002330
   270      1    1.4814125000   18.2381337300    9.4993409000
   271      1    1.4814125000   14.9899087300   12.7473591000
   272      1    1.4814125000   18.2381337300   15.9955997670
   273      1    2.9628250000   12.9929000000    4.9999458250
   274      1    2.9628250000   16.2411250000    8.2481864920
   275      1    2.9628250000   12.9929000000   11.4964271590
   276      1    2.9628250000   16.2411250000   14.7446678260
   277      1    2.9628250000   12.9929000000    7.5020321740
   278      1    2.9628250000   16.2411250000   10.7502728410
   279      1    2.9628250000   12.9929000000   13.9985135080
   280      1    2.9628250000   16.2411250000   17.2467541750
   281      1    4.4442375000   17.4920814120    6.2511002330
   282      1    4.4442375000   14.2438564120    9.4993409000
   283      1    4.4442375000   17.4920814120   12.7473591000
   284      1    4.4442375000   14.2438564120   15.9955997670
   285      1    4.4442375000   14.9899087300    6.2511002330
   286      1    4.4442375000   18.2381337300    9.4993409000
   287      1    4.4442375000   14.9899087300   12.7473591000
   288      1    4.4442375000   18.2381337300   15.9955997670
   289      1    5.9256500000   12.9929000000    4.9999458250
   290      1    5.9256500000   16.2411250000    8.2481864920
   291      1    5.9256500000   12.9929000000   11.4964271590
   292      1    5.9256500000   16.2411250000   14.7446678260
   293      1    5.9256500000   12.9929000000    7.5020321740
   294      1    5.9256500000   16.2411250000   10.7502728410
   295      1    5.9256500000   12.9929000000   13.9985135080
   296      1    5.9256500000   16.2411250000   17.2467541750
   297      1    7.4070625000   17.4920814120    6.2511002330
   298      1    7.4070625000   14.2438564120    9.4993409000
   299      1    7.4070625000   17.4920814120   12.7473591000
   300      1    7.4070625000   14.2438564120   15.9955997670
   301      1    7.4070625000   14.9899087300    6.2511002330
   302      1    7.4070625000   18.2381337300    9.4993409000
   303      1    7.4070625000   14.9899087300   12.7473591000
   304      1    7.4070625000   18.2381337300   15.9955997670
   305      1    8.8884750000   12.9929000000    4.9999458250
   306      1    8.8884750000   16.2411250000    8.2481864920
   307      1    8.8884750000   12.9929000000   11.4964271590
   308      1    8.8884750000   16.2411250000   14.7446678260
   309      1    8.8884750000   12.9929000000    7.5020321740
   310      1    8.8884750000   16.2411250000   10.7502728410
   311      1    8.8884750000   12.9929000000   13.9985135080
   312      1    8.8884750000   16.2411250000   17.2467541750
   313      1   10.3698875000   17.4920814120    6.2511002330
   314      1   10.3698875000   14.2438564120    9.4993409000
   315      1   10.3698875000   17.4920814120   12.7473591000
   316      1   10.3698875000   14.2438564120   15.9955997670
   317      1   10.3698875000   14.9899087300    6.2511002330
   318      1   10.3698875000   18.2381337300    9.4993409000
   319      1   10.3698875000   14.9899087300   12.7473591000
   320      1   10.3698875000   18.2381337300   15.9955997670
   321      1    0.0000000000   19.4893500000    4.9999458250
   322      1    0.0000000000   22.7375750000    8.2481864920
   323      1    0.0000000000   19.4893500000   11.4964271590
   324      1    0.0000000000   22.7375750000   14.7446678260
   325      1    0.0000000000   19.4893500000    7.5020321740
   326      1    0.0000000000   22.7375750000   10.7502728410
   327      1    0.0000000000   19.4893500000   13.9985135080
   328      1    0.0000000000   22.7375750000   17.2467541750
   329      1    1.4814125000   23.9885314120    6.2511002330
   330      1    1.4814125000   20.7403064120    9.4993409000
   331      1    1.4814125000   23.9885314120   12.7473591000
   332      1    1.4814125000   20.7403064120   15.9955997670
   333      1    1.4814125000   21.4863587300    6.2511002330
   334      1    1.4814125000   24.7345837300    9.4993409000
   335      1    1.4814125000   21.4863587300   12.7473591000
   336      1    1.4814125000   24.7345837300   15.9955997670
   337      1    2.9628250000   19.4893500000    4.9999458250
   338      1    2.9628250000   22.7375750000    8.2481864920
   339      1    2.9628250000   19.4893500000   11.4964271590
   340      1    2.9628250000   22.7375750000   14.7446678260
   341      1    2.9628250000   19.4893500000    7.5020321740
   342      1    2.9628250000   22.7375750000   10.7502728410
   343      1    2.9628250000   19.4893500000   13.9985135080
   344      1    2.9628250000   22.7375750000   17.2467541750
   345      1    4.4442375000   23.9885314120    6.2511002330
   346      1    4.4442375000   20.7403064120    9.4993409000
   347      1    4.4442375000   23.9885314120   12.7473591000
   348      1    4.4442375000   20.7403064120   15.9955997670
   349      1    4.4442375000   21.4863587300    6.2511002330
   350      1    4.4442375000   24.7345837300    9.4993409000
   351      1    4.4442375000   21.4863587300   12.7473591000
   352      1    4.4442375000   24.7345837300   15.9955997670
   353      1    5.9256500000   19.4893500000    4.9999458250
   354      1    5.9256500000   22.7375750000    8.2481864920
   355      1    5.9256500000   19.4893500000   11.4964271590
   356      1    5.9256500000   22.7375750000   14.7446678260
   357      1    5.9256500000   19.4893500000    7.5020321740
   358      1    5.9256500000   22.7375750000   10.7502728410
   359      1    5.9256500000   19.4893500000   13.9985135080
   360      1    5.9256500000   22.7375750000   17.2467541750
   361      1    7.4070625000   23.9885314120    6.2511002330
   362      1    7.4070625000   20.7403064120    9.4993409000
   363      1    7.4070625000   23.9885314120   12.7473591000
   364      1    7.4070625000   20.7403064120   15.9955997670
   365      1    7.4070625000   21.4863587300    6.2511002330
   366      1    7.4070625000   24.7345837300    9.4993409000
   367      1    7.4070625000   21.4863587300   12.7473591000
   368      1    7.4070625000   24.7345837300   15.9955997670
   369      1    8.8884750000   19.4893500000    4.9999458250
   370      1    8.8884750000   22.7375750000    8.2481864920
   371      1    8.8884750000   19.4893500000   11.4964271590
   372      1    8.8884750000   22.7375750000   14.7446678260
   373      1    8.8884750000   19.4893500000    7.5020321740
   374      1    8.8884750000   22.7375750000   10.7502728410
   375      1    8.8884750000   19.4893500000   13.9985135080
   376      1    8.8884750000   22.7375750000   17.2467541750
   377      1   10.3698875000   23.9885314120    6.2511002330
   378      1   10.3698875000   20.7403064120    9.4993409000
   379      1   10.3698875000   23.9885314120   12.7473591000
   380      1   10.3698875000   20.7403064120   15.9955997670
   381      1   10.3698875000   21.4863587300    6.2511002330
   382      1   10.3698875000   24.7345837300    9.4993409000
   383      1   10.3698875000   21.4863587300   12.7473591000
   384      1   10.3698875000   24.7345837300   15.9955997670
   385      1   11.8513000000   12.9929000000    4.9999458250
   386      1   11.8513000000   16.2411250000    8.2481864920
   387      1   11.8513000000   12.9929000000   11.4964271590
   388      1   11.8513000000   16.2411250000   14.7446678260
   389      1   11.8513000000   12.9929000000    7.5020321740
   390      1   11.8513000000   16.2411250000   10.7502728410
   391      1   11.8513000000   12.9929000000   13.9985135080
   392      1   11.8513000000   16.2411250000   17.2467541750
   393      1   13.3327125000   17.4920814120    6.2511002330
   394      1   13.3327125000   14.2438564120    9.4993409000
   395      1   13.3327125000   17.4920814120   12.7473591000
   396      1   13.3327125000   14.2438564120   15.9955997670
   397      1   13.3327125000   14.9899087300    6.2511002330
   398      1   13.3327125000   18.2381337300    9.4993409000
   399      1   13.3327125000   14.9899087300   12.7473591000
   400      1   13.3327125000   18.2381337300   15.9955997670
   401      1   14.8141250000   12.9929000000    4.9999458250
   402      1   14.8141250000   16.2411250000    8.2481864920
   403      1   14.8141250000   12.9929000000   11.4964271590
   404      1   14.8141250000   16.2411250000   14.7446678260
   405      1   14.8141250000   12.9929000000    7.5020321740
   406      1   14.8141250000   16.2411250000   10.7502728410
   407      1   14.8141250000   12.9929000000   13.9985135080
   408      1   14.8141250000   16.2411250000   17.2467541750
   409      1   16.2955375000   17.4920814120    6.2511002330
   410      1   16.2955375000   14.2438564120    9.4993409000
   411      1   16.2955375000   17.4920814120   12.7473591000
   412      1   16.2955375000   14.2438564120   15.9955997670
   413      1   16.2955375000   14.9899087300    6.2511002330
   414      1   16.2955375000   18.2381337300    9.4993409000
   415      1   16.2955375000   14.9899087300   12.7473591000
   416      1   16.2955375000   18.2381337300   15.9955997670
   417      1   17.7769500000   12.9929000000    4.9999458250
   418      1   17.7769500000   16.2411250000    8.2481864920
   419      1   17.7769500000   12.9929000000   11.4964271590
   420      1   17.7769500000   16.2411250000   14.7446678260
   421      1   17.7769500000   12.9929000000    7.5020321740
   422      1   17.7769500000   16.2411250000   10.7502728410
   423      1   17.7769500000   12.9929000000   13.9985135080
   424      1   17.7769500000   16.2411250000   17.2467541750
   425      1   19.2583625000   17.4920814120    6.2511002330
   426      1   19.2583625000   14.2438564120    9.4993409000
   427      1   19.2583625000   17.4920814120   12.7473591000
   428      1   19.2583625000   14.2438564120   15.9955997670
   429      1   19.2583625000   14.9899087300    6.2511002330
   430      1   19.2583625000   18.2381337300    9.4993409000
   431      1   19.2583625000   14.9899087300   12.7473591000
   432      1   19.2583625000   18.2381337300   15.9955997670
   433      1   20.7397750000   12.9929000000    4.9999458250
   434      1   20.7397750000   16.2411250000    8.2481864920
   435      1   20.7397750000   16.2411250000   14.7446678260
   436      1   20.7397750000   12.9929000000    7.5020321740
   437      1   20.7397750000   16.2411250000   10.7502728410
   438      1   20.7397750000   12.9929000000   13.9985135080
   439      1   20.7397750000   16.2411250000   17.2467541750
   440      1   22.2211875000   17.4920814120    6.2511002330
   441      1   22.2211875000   14.2438564120    9.4993409000
   442      1   22.2211875000   17.4920814120   12.7473591000
   443      1   22.2211875000   14.2438564120   15.9955997670
   444      1   22.2211875000   14.9899087300    6.2511002330
   445      1   22.2211875000   18.2381337300    9.4993409000
   446      1   22.2211875000   14.9899087300   12.7473591000
   447      1   22.2211875000   18.2381337300   15.9955997670
   448      1   11.8513000000   19.4893500000    4.9999458250
   449      1   11.8513000000   22.7375750000    8.2481864920
   450      1   11.8513000000   19.4893500000   11.4964271590
   451      1   11.8513000000   22.7375750000   14.7446678260
   452      1   11.8513000000   19.4893500000    7.5020321740
   453      1   11.8513000000   22.7375750000   10.7502728410
   454      1   11.8513000000   19.4893500000   13.9985135080
   455      1   11.8513000000   22.7375750000   17.2467541750
   456      1   13.3327125000   23.9885314120    6.2511002330
   457      1   13.3327125000   20.7403064120    9.4993409000
   458      1   13.3327125000   23.9885314120   12.7473591000
   459      1   13.3327125000   20.7403064120   15.9955997670
   460      1   13.3327125000   21.4863587300    6.2511002330
   461      1   13.3327125000   24.7345837300    9.4993409000
   462      1   13.3327125000   21.4863587300   12.7473591000
   463      1   13.3327125000   24.7345837300   15.9955997670
   464      1   14.8141250000   19.4893500000    4.9999458250
   465      1   14.8141250000   22.7375750000    8.2481864920
   466      1   14.8141250000   19.4893500000   11.4964271590
   467      1   14.8141250000   22.7375750000   14.7446678260
   468      1   14.8141250000   19.4893500000    7.5020321740
   469      1   14.8141250000   22.7375750000   10.7502728410
   470      1   14.8141250000   19.4893500000   13.9985135080
   471      1   14.8141250000   22.7375750000   17.2467541750
   472      1   16.2955375000   23.9885314120    6.2511002330
   473      1   16.2955375000   20.7403064120    9.4993409000
   474      1   16.2955375000   23.9885314120   12.7473591000
   475      1   16.2955375000   20.7403064120   15.9955997670
   476      1   16.2955375000   21.4863587300    6.2511002330
   477      1   16.2955375000   24.7345837300    9.4993409000
   478      1   16.2955375000   21.4863587300   12.7473591000
   479      1   16.2955375000   24.7345837300   15.9955997670
   480      1   17.7769500000   19.4893500000    4.9999458250